file 296668 1412892394                                          
version 2
run IPv4ModerateFastMobility-0-20141007-09:49:35-19268
attr configname IPv4ModerateFastMobility
attr datetime 20141007-09:49:35
attr experiment IPv4ModerateFastMobility
attr inifile omnetpp.ini
attr iterationvars ""
attr iterationvars2 $repetition=0
attr measurement ""
attr network OrionNetwork
attr processid 19268
attr repetition 0
attr replication #0
attr resultdir results
attr runnumber 0
attr seedset 0
vector 16  OrionNetwork.host[0].wlan[0].queue  queueLength:vector  ETV
attr interpolationmode sample-hold
attr title "queue length, vector"
16	72207 10 0 0 0 0 1 0 0 0 0
vector 38  OrionNetwork.host[1].wlan[0].queue  queueLength:vector  ETV
attr interpolationmode sample-hold
attr title "queue length, vector"
38	83125 122 0 11335 0 21.002237638246 5 0 1 2 2
vector 60  OrionNetwork.host[2].wlan[0].queue  queueLength:vector  ETV
attr interpolationmode sample-hold
attr title "queue length, vector"
60	89566 10 0 0 0 0 1 0 0 0 0
vector 82  OrionNetwork.host[3].wlan[0].queue  queueLength:vector  ETV
attr interpolationmode sample-hold
attr title "queue length, vector"
82	93587 10 0 0 0 0 1 0 0 0 0
vector 104  OrionNetwork.host[4].wlan[0].queue  queueLength:vector  ETV
attr interpolationmode sample-hold
attr title "queue length, vector"
104	100378 127 0 14201 0 26.005398156174 5 0 1 2 2
vector 126  OrionNetwork.host[5].wlan[0].queue  queueLength:vector  ETV
attr interpolationmode sample-hold
attr title "queue length, vector"
126	107085 11 0 0 0 0 1 0 0 0 0
vector 148  OrionNetwork.host[6].wlan[0].queue  queueLength:vector  ETV
attr interpolationmode sample-hold
attr title "queue length, vector"
148	114869 11 0 0 0 0 1 0 0 0 0
vector 170  OrionNetwork.host[7].wlan[0].queue  queueLength:vector  ETV
attr interpolationmode sample-hold
attr title "queue length, vector"
170	126441 124 0 14069 0 26.004467294884 5 0 1 2 2
vector 192  OrionNetwork.host[8].wlan[0].queue  queueLength:vector  ETV
attr interpolationmode sample-hold
attr title "queue length, vector"
192	134425 11 0 0 0 0 1 0 0 0 0
vector 214  OrionNetwork.host[9].wlan[0].queue  queueLength:vector  ETV
attr interpolationmode sample-hold
attr title "queue length, vector"
214	143148 11 0 0 0 0 1 0 0 0 0
vector 236  OrionNetwork.host[10].wlan[0].queue  queueLength:vector  ETV
attr interpolationmode sample-hold
attr title "queue length, vector"
236	154983 11 0 0 0 0 1 0 0 0 0
vector 258  OrionNetwork.host[11].wlan[0].queue  queueLength:vector  ETV
attr interpolationmode sample-hold
attr title "queue length, vector"
258	164655 68 0 14146 0 26.004932910276 3 0 1 1 1
vector 280  OrionNetwork.host[12].wlan[0].queue  queueLength:vector  ETV
attr interpolationmode sample-hold
attr title "queue length, vector"
280	172804 11 0 0 0 0 1 0 0 0 0
vector 302  OrionNetwork.host[13].wlan[0].queue  queueLength:vector  ETV
attr interpolationmode sample-hold
attr title "queue length, vector"
302	179485 119 0 3250 0 6.006007083166 5 0 1 2 2
vector 324  OrionNetwork.host[14].wlan[0].queue  queueLength:vector  ETV
attr interpolationmode sample-hold
attr title "queue length, vector"
324	186958 11 0 0 0 0 1 0 0 0 0
vector 346  OrionNetwork.host[15].wlan[0].queue  queueLength:vector  ETV
attr interpolationmode sample-hold
attr title "queue length, vector"
346	195080 11 0 0 0 0 1 0 0 0 0
vector 368  OrionNetwork.host[16].wlan[0].queue  queueLength:vector  ETV
attr interpolationmode sample-hold
attr title "queue length, vector"
368	206493 177 0 6074 0 11.003698704522 7 0 1 3 3
vector 390  OrionNetwork.host[17].wlan[0].queue  queueLength:vector  ETV
attr interpolationmode sample-hold
attr title "queue length, vector"
390	215275 11 0 0 0 0 1 0 0 0 0
vector 412  OrionNetwork.host[18].wlan[0].queue  queueLength:vector  ETV
attr interpolationmode sample-hold
attr title "queue length, vector"
412	227262 64 0 3016 0 6.00414734009 3 0 1 1 1
vector 434  OrionNetwork.host[19].wlan[0].queue  queueLength:vector  ETV
attr interpolationmode sample-hold
attr title "queue length, vector"
434	240780 11 0 0 0 0 1 0 0 0 0
vector 456  OrionNetwork.host[20].wlan[0].queue  queueLength:vector  ETV
attr interpolationmode sample-hold
attr title "queue length, vector"
456	248292 11 0 0 0 0 1 0 0 0 0
vector 478  OrionNetwork.host[21].wlan[0].queue  queueLength:vector  ETV
attr interpolationmode sample-hold
attr title "queue length, vector"
478	255505 64 0 3210 0 6.00554281858 3 0 1 1 1
vector 500  OrionNetwork.host[22].wlan[0].queue  queueLength:vector  ETV
attr interpolationmode sample-hold
attr title "queue length, vector"
500	267106 233 0 14014 0 26.00400277462 9 0 1 4 4
vector 522  OrionNetwork.host[23].wlan[0].queue  queueLength:vector  ETV
attr interpolationmode sample-hold
attr title "queue length, vector"
522	282288 237 0 13946 0 26.00353713912 9 0 1 4 4
vector 544  OrionNetwork.host[24].wlan[0].queue  queueLength:vector  ETV
attr interpolationmode sample-hold
attr title "queue length, vector"
544	292863 11 0 0 0 0 1 0 0 0 0
vector 1  OrionNetwork.host[0].udpApp[0]  sentPk:vector(packetBytes)  ETV
attr interpolationmode none
attr source sentPk
attr title "packets sent, vector(packetBytes)"
1	67694 206 1400 13904 6 26.003072768864 10 20 20 200 4000
vector 3  OrionNetwork.host[0].udp  sentPk:vector(packetBytes)  ETV
attr interpolationmode none
attr source sentPk
attr title "packets sent, vector(packetBytes)"
3	69382 206 1425 13905 6 26.003072768864 10 28 28 280 7840
vector 13  OrionNetwork.host[0].wlan[0].queue  rcvdPk:vector(packetBytes)  ETV
attr interpolationmode none
attr title "received packets, vector(packetBytes)"
13	71677 271 1427 13907 6 26.003072768864 12 28 48 536 24608
vector 15  OrionNetwork.host[0].wlan[0].queue  queueingTime:vector  ETV
attr interpolationmode none
attr title "queueing time, vector"
15	71948 259 1427 13907 6 26.003072768864 12 0 0 0 0
vector 19  OrionNetwork.host[0].wlan[0].mac  rcvdPkFromHL:vector(packetBytes)  ETV
attr interpolationmode none
attr source packetReceivedFromUpper
attr title "packets received from higher layer, vector(packetBytes)"
19	73607 271 1428 13908 6 26.003072768864 12 28 48 536 24608
vector 18  OrionNetwork.host[0].wlan[0].mac  sentDownPk:vector(packetBytes)  ETV
attr interpolationmode none
attr source packetSentToLower
attr title "packets sent to lower layer, vector(packetBytes)"
18	73336 271 1428 13908 6 26.003072768864 12 38 58 656 36528
vector 526  OrionNetwork.host[23].wlan[0].mac  rcvdPkFromLL:vector(packetBytes)  ETV
attr interpolationmode none
attr source packetReceivedFromLower
attr title "packets received from lower layer, vector(packetBytes)"
526	285515 2160 1439 14060 6.000232185128 26.00423559237 75 38 58 3930 211980
vector 523  OrionNetwork.host[23].wlan[0].mac  passedUpPk:vector(packetBytes)  ETV
attr interpolationmode none
attr source packetSentToUpper
attr title "packets passed to higher layer, vector(packetBytes)"
523	282525 1764 1439 14014 6.000232185128 26.00400277462 61 28 48 2648 119264
vector 510  OrionNetwork.host[23].udp  rcvdPk:vector(packetBytes)  ETV
attr interpolationmode none
attr source rcvdPk
attr title "packets received, vector(packetBytes)"
510	277981 1471 1441 14018 6.000232185128 26.00400277462 51 8 28 1348 37104
vector 511  OrionNetwork.host[23].udp  passedUpPk:vector(count)  ETV
attr interpolationmode none
attr title "packets passed up, vector(count)"
511	279452 1466 1441 14018 6.000232185128 26.00400277462 51 1 51 1326 45526
vector 507  OrionNetwork.host[23].udpApp[0]  sentPk:vector(packetBytes)  ETV
attr interpolationmode none
attr source sentPk
attr title "packets sent, vector(packetBytes)"
507	275152 262 1442 13926 6.000232185128 26.003304953992 9 20 20 180 3600
vector 506  OrionNetwork.host[23].udpApp[0]  rcvdPk:vector(packetBytes)  ETV
attr interpolationmode none
attr source rcvdPk
attr title "packets received, vector(packetBytes)"
506	273681 1471 1442 14019 6.000232185128 26.00400277462 51 0 20 940 18800
vector 508  OrionNetwork.host[23].udpApp[0]  rcvdPkLifetime:vector  ETV
attr interpolationmode none
attr source messageAge(rcvdPk)
attr title "received packet lifetime, vector"
attr unit s
508	275414 2074 1442 14019 6.000232185128 26.00400277462 51 0.000232185128 0.001757890081 0.015217987045 7.9053511920256e-006
vector 509  OrionNetwork.host[23].udp  sentPk:vector(packetBytes)  ETV
attr interpolationmode none
attr source sentPk
attr title "packets sent, vector(packetBytes)"
509	277488 493 1443 13928 6.000232185128 26.003304953992 17 8 28 396 10448
vector 519  OrionNetwork.host[23].wlan[0].queue  rcvdPk:vector(packetBytes)  ETV
attr interpolationmode none
attr title "received packets, vector(packetBytes)"
519	281031 613 1445 13932 6.000232185128 26.003304953992 21 28 48 848 36224
vector 521  OrionNetwork.host[23].wlan[0].queue  queueingTime:vector  ETV
attr interpolationmode none
attr title "queueing time, vector"
521	281644 644 1445 13946 6.000232185128 26.00353713912 21 0 0.000232185128 0.000928740512 2.1563973465751e-007
vector 525  OrionNetwork.host[23].wlan[0].mac  rcvdPkFromHL:vector(packetBytes)  ETV
attr interpolationmode none
attr source packetReceivedFromUpper
attr title "packets received from higher layer, vector(packetBytes)"
525	284902 613 1446 13947 6.000232185128 26.00353713912 21 28 48 848 36224
vector 524  OrionNetwork.host[23].wlan[0].mac  sentDownPk:vector(packetBytes)  ETV
attr interpolationmode none
attr source packetSentToLower
attr title "packets sent to lower layer, vector(packetBytes)"
524	284289 613 1446 13947 6.000232185128 26.00353713912 21 38 58 1058 55284
vector 394  OrionNetwork.host[17].wlan[0].mac  rcvdPkFromLL:vector(packetBytes)  ETV
attr interpolationmode none
attr source packetReceivedFromLower
attr title "packets received from lower layer, vector(packetBytes)"
394	216447 1623 1449 13969 6.000232201286 26.00376963176 56 38 58 2988 163424
vector 391  OrionNetwork.host[17].wlan[0].mac  passedUpPk:vector(packetBytes)  ETV
attr interpolationmode none
attr source packetSentToUpper
attr title "packets passed to higher layer, vector(packetBytes)"
391	215286 871 1449 12822 6.000232201286 26.00069777131 30 28 48 1400 66080
vector 378  OrionNetwork.host[17].udp  rcvdPk:vector(packetBytes)  ETV
attr interpolationmode none
attr source rcvdPk
attr title "packets received, vector(packetBytes)"
378	213371 814 1451 12824 6.000232201286 26.00069777131 28 28 28 784 21952
vector 379  OrionNetwork.host[17].udp  passedUpPk:vector(count)  ETV
attr interpolationmode none
attr title "packets passed up, vector(count)"
379	214185 805 1451 12824 6.000232201286 26.00069777131 28 1 28 406 7714
vector 375  OrionNetwork.host[17].udpApp[0]  sentPk:vector(packetBytes)  ETV
attr interpolationmode none
attr source sentPk
attr title "packets sent, vector(packetBytes)"
375	211934 145 1452 12543 6.000232201286 26.000232357783 5 20 20 100 2000
vector 374  OrionNetwork.host[17].udpApp[0]  rcvdPk:vector(packetBytes)  ETV
attr interpolationmode none
attr source rcvdPk
attr title "packets received, vector(packetBytes)"
374	211120 814 1452 12825 6.000232201286 26.00069777131 28 20 20 560 11200
vector 376  OrionNetwork.host[17].udpApp[0]  rcvdPkLifetime:vector  ETV
attr interpolationmode none
attr source messageAge(rcvdPk)
attr title "received packet lifetime, vector"
attr unit s
376	212079 1147 1452 12825 6.000232201286 26.00069777131 28 0.000232070732 0.000232833424 0.006510689566 1.5138976761258e-006
vector 377  OrionNetwork.host[17].udp  sentPk:vector(packetBytes)  ETV
attr interpolationmode none
attr source sentPk
attr title "packets sent, vector(packetBytes)"
377	213226 145 1453 12544 6.000232201286 26.000232357783 5 28 28 140 3920
vector 387  OrionNetwork.host[17].wlan[0].queue  rcvdPk:vector(packetBytes)  ETV
attr interpolationmode none
attr title "received packets, vector(packetBytes)"
387	214990 145 1455 12546 6.000232201286 26.000232357783 5 48 48 240 11520
vector 389  OrionNetwork.host[17].wlan[0].queue  queueingTime:vector  ETV
attr interpolationmode none
attr title "queueing time, vector"
389	215135 140 1455 12546 6.000232201286 26.000232357783 5 0 0 0 0
vector 393  OrionNetwork.host[17].wlan[0].mac  rcvdPkFromHL:vector(packetBytes)  ETV
attr interpolationmode none
attr source packetReceivedFromUpper
attr title "packets received from higher layer, vector(packetBytes)"
393	216302 145 1456 12547 6.000232201286 26.000232357783 5 48 48 240 11520
vector 392  OrionNetwork.host[17].wlan[0].mac  sentDownPk:vector(packetBytes)  ETV
attr interpolationmode none
attr source packetSentToLower
attr title "packets sent to lower layer, vector(packetBytes)"
392	216157 145 1456 12547 6.000232201286 26.000232357783 5 58 58 290 16820
vector 548  OrionNetwork.host[24].wlan[0].mac  rcvdPkFromLL:vector(packetBytes)  ETV
attr interpolationmode none
attr source packetReceivedFromLower
attr title "packets received from lower layer, vector(packetBytes)"
548	294211 1752 1461 13971 6.000232423811 26.003769702199 60 38 58 3220 176880
vector 545  OrionNetwork.host[24].wlan[0].mac  passedUpPk:vector(packetBytes)  ETV
attr interpolationmode none
attr source packetSentToUpper
attr title "packets passed to higher layer, vector(packetBytes)"
545	292874 1047 1461 12600 6.000232423811 26.000464748207 36 28 48 1668 78384
vector 532  OrionNetwork.host[24].udp  rcvdPk:vector(packetBytes)  ETV
attr interpolationmode none
attr source rcvdPk
attr title "packets received, vector(packetBytes)"
532	290671 958 1463 12602 6.000232423811 26.000464748207 33 28 28 924 25872
vector 533  OrionNetwork.host[24].udp  passedUpPk:vector(count)  ETV
attr interpolationmode none
attr title "packets passed up, vector(count)"
533	291629 949 1463 12602 6.000232423811 26.000464748207 33 1 33 561 12529
vector 529  OrionNetwork.host[24].udpApp[0]  sentPk:vector(packetBytes)  ETV
attr interpolationmode none
attr source sentPk
attr title "packets sent, vector(packetBytes)"
529	289029 145 1464 12554 6.000232423811 26.000232423811 5 20 20 100 2000
vector 528  OrionNetwork.host[24].udpApp[0]  rcvdPk:vector(packetBytes)  ETV
attr interpolationmode none
attr source rcvdPk
attr title "packets received, vector(packetBytes)"
528	288071 958 1464 12603 6.000232423811 26.000464748207 33 20 20 660 13200
vector 530  OrionNetwork.host[24].udpApp[0]  rcvdPkLifetime:vector  ETV
attr interpolationmode none
attr source messageAge(rcvdPk)
attr title "received packet lifetime, vector"
attr unit s
530	289174 1352 1464 12603 6.000232423811 26.000464748207 33 0.000232070732 0.000232832338 0.00767475814 1.7849075411744e-006
vector 531  OrionNetwork.host[24].udp  sentPk:vector(packetBytes)  ETV
attr interpolationmode none
attr source sentPk
attr title "packets sent, vector(packetBytes)"
531	290526 145 1465 12555 6.000232423811 26.000232423811 5 28 28 140 3920
vector 541  OrionNetwork.host[24].wlan[0].queue  rcvdPk:vector(packetBytes)  ETV
attr interpolationmode none
attr title "received packets, vector(packetBytes)"
541	292578 145 1467 12557 6.000232423811 26.000232423811 5 48 48 240 11520
vector 543  OrionNetwork.host[24].wlan[0].queue  queueingTime:vector  ETV
attr interpolationmode none
attr title "queueing time, vector"
543	292723 140 1467 12557 6.000232423811 26.000232423811 5 0 0 0 0
vector 547  OrionNetwork.host[24].wlan[0].mac  rcvdPkFromHL:vector(packetBytes)  ETV
attr interpolationmode none
attr source packetReceivedFromUpper
attr title "packets received from higher layer, vector(packetBytes)"
547	294066 145 1468 12558 6.000232423811 26.000232423811 5 48 48 240 11520
vector 546  OrionNetwork.host[24].wlan[0].mac  sentDownPk:vector(packetBytes)  ETV
attr interpolationmode none
attr source packetSentToLower
attr title "packets sent to lower layer, vector(packetBytes)"
546	293921 145 1468 12558 6.000232423811 26.000232423811 5 58 58 290 16820
vector 218  OrionNetwork.host[9].wlan[0].mac  rcvdPkFromLL:vector(packetBytes)  ETV
attr interpolationmode none
attr source packetReceivedFromLower
attr title "packets received from lower layer, vector(packetBytes)"
218	145424 3037 1473 14054 6.000232581803 26.00423539109 105 38 58 5490 295620
vector 215  OrionNetwork.host[9].wlan[0].mac  passedUpPk:vector(packetBytes)  ETV
attr interpolationmode none
attr source packetSentToUpper
attr title "packets passed to higher layer, vector(packetBytes)"
215	143159 1973 1473 13363 6.000232581803 26.001162655691 68 28 48 3024 138432
vector 202  OrionNetwork.host[9].udp  rcvdPk:vector(packetBytes)  ETV
attr interpolationmode none
attr source rcvdPk
attr title "packets received, vector(packetBytes)"
202	139620 1625 1475 13365 6.000232581803 26.001162655691 56 28 28 1568 43904
vector 203  OrionNetwork.host[9].udp  passedUpPk:vector(count)  ETV
attr interpolationmode none
attr title "packets passed up, vector(count)"
203	141245 1616 1475 13365 6.000232581803 26.001162655691 56 1 56 1596 60116
vector 199  OrionNetwork.host[9].udpApp[0]  sentPk:vector(packetBytes)  ETV
attr interpolationmode none
attr source sentPk
attr title "packets sent, vector(packetBytes)"
199	137039 146 1476 12669 6.000232581803 26.000697080178 5 20 20 100 2000
vector 198  OrionNetwork.host[9].udpApp[0]  rcvdPk:vector(packetBytes)  ETV
attr interpolationmode none
attr source rcvdPk
attr title "packets received, vector(packetBytes)"
198	135414 1625 1476 13366 6.000232581803 26.001162655691 56 20 20 1120 22400
vector 200  OrionNetwork.host[9].udpApp[0]  rcvdPkLifetime:vector  ETV
attr interpolationmode none
attr source messageAge(rcvdPk)
attr title "received packet lifetime, vector"
attr unit s
200	137185 2289 1476 13366 6.000232581803 26.001162655691 56 0.000232011842 0.000232833424 0.013021808024 3.027993593033e-006
vector 201  OrionNetwork.host[9].udp  sentPk:vector(packetBytes)  ETV
attr interpolationmode none
attr source sentPk
attr title "packets sent, vector(packetBytes)"
201	139474 146 1477 12670 6.000232581803 26.000697080178 5 28 28 140 3920
vector 211  OrionNetwork.host[9].wlan[0].queue  rcvdPk:vector(packetBytes)  ETV
attr interpolationmode none
attr title "received packets, vector(packetBytes)"
211	142861 146 1479 12672 6.000232581803 26.000697080178 5 48 48 240 11520
vector 213  OrionNetwork.host[9].wlan[0].queue  queueingTime:vector  ETV
attr interpolationmode none
attr title "queueing time, vector"
213	143007 141 1479 12672 6.000232581803 26.000697080178 5 0 0 0 0
vector 217  OrionNetwork.host[9].wlan[0].mac  rcvdPkFromHL:vector(packetBytes)  ETV
attr interpolationmode none
attr source packetReceivedFromUpper
attr title "packets received from higher layer, vector(packetBytes)"
217	145278 146 1480 12673 6.000232581803 26.000697080178 5 48 48 240 11520
vector 216  OrionNetwork.host[9].wlan[0].mac  sentDownPk:vector(packetBytes)  ETV
attr interpolationmode none
attr source packetSentToLower
attr title "packets sent to lower layer, vector(packetBytes)"
216	145132 146 1480 12673 6.000232581803 26.000697080178 5 58 58 290 16820
vector 416  OrionNetwork.host[18].wlan[0].mac  rcvdPkFromLL:vector(packetBytes)  ETV
attr interpolationmode none
attr source packetReceivedFromLower
attr title "packets received from lower layer, vector(packetBytes)"
416	229954 3147 1483 14111 6.000232642323 26.004700086794 108 38 58 5644 303792
vector 413  OrionNetwork.host[18].wlan[0].mac  passedUpPk:vector(packetBytes)  ETV
attr interpolationmode none
attr source packetSentToUpper
attr title "packets passed to higher layer, vector(packetBytes)"
413	227326 2060 1483 13786 6.000232642323 26.0024637775 71 28 48 3128 142304
vector 400  OrionNetwork.host[18].udp  rcvdPk:vector(packetBytes)  ETV
attr interpolationmode none
attr source rcvdPk
attr title "packets received, vector(packetBytes)"
400	223280 1682 1485 13177 6.000232642323 26.00093005492 58 8 28 1604 44752
vector 401  OrionNetwork.host[18].udp  passedUpPk:vector(count)  ETV
attr interpolationmode none
attr title "packets passed up, vector(count)"
401	224962 1674 1485 13177 6.000232642323 26.00093005492 58 1 58 1711 66729
vector 397  OrionNetwork.host[18].udpApp[0]  sentPk:vector(packetBytes)  ETV
attr interpolationmode none
attr source sentPk
attr title "packets sent, vector(packetBytes)"
397	220504 173 1486 12618 6.000232642323 26.000464948069 6 20 20 120 2400
vector 396  OrionNetwork.host[18].udpApp[0]  rcvdPk:vector(packetBytes)  ETV
attr interpolationmode none
attr source rcvdPk
attr title "packets received, vector(packetBytes)"
396	218822 1682 1486 13178 6.000232642323 26.00093005492 58 0 20 1140 22800
vector 398  OrionNetwork.host[18].udpApp[0]  rcvdPkLifetime:vector  ETV
attr interpolationmode none
attr source messageAge(rcvdPk)
attr title "received packet lifetime, vector"
attr unit s
398	220677 2375 1486 13178 6.000232642323 26.00093005492 58 0.000232132109 0.002061614614 0.015316861493 7.3327404722985e-006
vector 399  OrionNetwork.host[18].udp  sentPk:vector(packetBytes)  ETV
attr interpolationmode none
attr source sentPk
attr title "packets sent, vector(packetBytes)"
399	223052 228 1487 12619 6.000232642323 26.000464948069 8 8 28 204 5552
vector 409  OrionNetwork.host[18].wlan[0].queue  rcvdPk:vector(packetBytes)  ETV
attr interpolationmode none
attr title "received packets, vector(packetBytes)"
409	226690 285 1489 12621 6.000232642323 26.000464948069 10 28 48 420 18480
vector 411  OrionNetwork.host[18].wlan[0].queue  queueingTime:vector  ETV
attr interpolationmode none
attr title "queueing time, vector"
411	226975 287 1489 12621 6.000232642323 26.000464948069 10 0 0.000232642323 0.000232642323 5.4122450450836e-008
vector 415  OrionNetwork.host[18].wlan[0].mac  rcvdPkFromHL:vector(packetBytes)  ETV
attr interpolationmode none
attr source packetReceivedFromUpper
attr title "packets received from higher layer, vector(packetBytes)"
415	229670 284 1490 12622 6.000232642323 26.000464948069 10 28 48 420 18480
vector 414  OrionNetwork.host[18].wlan[0].mac  sentDownPk:vector(packetBytes)  ETV
attr interpolationmode none
attr source packetSentToLower
attr title "packets sent to lower layer, vector(packetBytes)"
414	229386 284 1490 12622 6.000232642323 26.000464948069 10 38 58 520 27880
vector 438  OrionNetwork.host[19].wlan[0].mac  rcvdPkFromLL:vector(packetBytes)  ETV
attr interpolationmode none
attr source packetReceivedFromLower
attr title "packets received from lower layer, vector(packetBytes)"
438	242712 2232 1493 13316 6.000232650077 26.001162317415 77 38 58 4086 222548
vector 435  OrionNetwork.host[19].wlan[0].mac  passedUpPk:vector(packetBytes)  ETV
attr interpolationmode none
attr source packetSentToUpper
attr title "packets passed to higher layer, vector(packetBytes)"
435	240791 1629 1493 13316 6.000232650077 26.001162317415 56 28 48 2508 115344
vector 422  OrionNetwork.host[19].udp  rcvdPk:vector(packetBytes)  ETV
attr interpolationmode none
attr source rcvdPk
attr title "packets received, vector(packetBytes)"
422	237770 1366 1495 13318 6.000232650077 26.001162317415 47 28 28 1316 36848
vector 423  OrionNetwork.host[19].udp  passedUpPk:vector(count)  ETV
attr interpolationmode none
attr title "packets passed up, vector(count)"
423	239136 1357 1495 13318 6.000232650077 26.001162317415 47 1 47 1128 35720
vector 419  OrionNetwork.host[19].udpApp[0]  sentPk:vector(packetBytes)  ETV
attr interpolationmode none
attr source sentPk
attr title "packets sent, vector(packetBytes)"
419	235554 146 1496 12713 6.000232650077 26.000697379876 5 20 20 100 2000
vector 418  OrionNetwork.host[19].udpApp[0]  rcvdPk:vector(packetBytes)  ETV
attr interpolationmode none
attr source rcvdPk
attr title "packets received, vector(packetBytes)"
418	234188 1366 1496 13319 6.000232650077 26.001162317415 47 20 20 940 18800
vector 420  OrionNetwork.host[19].udpApp[0]  rcvdPkLifetime:vector  ETV
attr interpolationmode none
attr source messageAge(rcvdPk)
attr title "received packet lifetime, vector"
attr unit s
420	235700 1924 1496 13319 6.000232650077 26.001162317415 47 0.000232061947 0.000232828317 0.010927760577 2.5407671335632e-006
vector 421  OrionNetwork.host[19].udp  sentPk:vector(packetBytes)  ETV
attr interpolationmode none
attr source sentPk
attr title "packets sent, vector(packetBytes)"
421	237624 146 1497 12714 6.000232650077 26.000697379876 5 28 28 140 3920
vector 431  OrionNetwork.host[19].wlan[0].queue  rcvdPk:vector(packetBytes)  ETV
attr interpolationmode none
attr title "received packets, vector(packetBytes)"
431	240493 146 1499 12716 6.000232650077 26.000697379876 5 48 48 240 11520
vector 433  OrionNetwork.host[19].wlan[0].queue  queueingTime:vector  ETV
attr interpolationmode none
attr title "queueing time, vector"
433	240639 141 1499 12716 6.000232650077 26.000697379876 5 0 0 0 0
vector 437  OrionNetwork.host[19].wlan[0].mac  rcvdPkFromHL:vector(packetBytes)  ETV
attr interpolationmode none
attr source packetReceivedFromUpper
attr title "packets received from higher layer, vector(packetBytes)"
437	242566 146 1500 12717 6.000232650077 26.000697379876 5 48 48 240 11520
vector 436  OrionNetwork.host[19].wlan[0].mac  sentDownPk:vector(packetBytes)  ETV
attr interpolationmode none
attr source packetSentToLower
attr title "packets sent to lower layer, vector(packetBytes)"
436	242420 146 1500 12717 6.000232650077 26.000697379876 5 58 58 290 16820
vector 42  OrionNetwork.host[1].wlan[0].mac  rcvdPkFromLL:vector(packetBytes)  ETV
attr interpolationmode none
attr source packetReceivedFromLower
attr title "packets received from lower layer, vector(packetBytes)"
42	85532 2350 1503 14056 6.000232651462 26.004235518389 84 38 58 4492 246096
vector 39  OrionNetwork.host[1].wlan[0].mac  passedUpPk:vector(packetBytes)  ETV
attr interpolationmode none
attr source packetSentToUpper
attr title "packets passed to higher layer, vector(packetBytes)"
39	83247 1655 1503 13378 6.000232651462 26.001162659361 59 28 48 2692 125296
vector 26  OrionNetwork.host[1].udp  rcvdPk:vector(packetBytes)  ETV
attr interpolationmode none
attr source rcvdPk
attr title "packets received, vector(packetBytes)"
26	79465 1459 1505 13380 6.000232651462 26.001162659361 52 28 28 1456 40768
vector 27  OrionNetwork.host[1].udp  passedUpPk:vector(count)  ETV
attr interpolationmode none
attr title "packets passed up, vector(count)"
27	80924 1450 1505 13380 6.000232651462 26.001162659361 52 1 52 1378 48230
vector 23  OrionNetwork.host[1].udpApp[0]  sentPk:vector(packetBytes)  ETV
attr interpolationmode none
attr source sentPk
attr title "packets sent, vector(packetBytes)"
23	76958 198 1506 12679 6.000232651462 26.000697176359 7 0 20 120 2400
vector 22  OrionNetwork.host[1].udpApp[0]  rcvdPk:vector(packetBytes)  ETV
attr interpolationmode none
attr source rcvdPk
attr title "packets received, vector(packetBytes)"
22	75499 1459 1506 13381 6.000232651462 26.001162659361 52 20 20 1040 20800
vector 24  OrionNetwork.host[1].udpApp[0]  rcvdPkLifetime:vector  ETV
attr interpolationmode none
attr source messageAge(rcvdPk)
attr title "received packet lifetime, vector"
attr unit s
24	77156 2080 1506 13381 6.000232651462 26.001162659361 52 0.000232011842 0.000697186545 0.012554799044 3.2429929139759e-006
vector 25  OrionNetwork.host[1].udp  sentPk:vector(packetBytes)  ETV
attr interpolationmode none
attr source sentPk
attr title "packets sent, vector(packetBytes)"
25	79236 229 1507 12680 6.000232651462 26.000697176359 8 8 1032 1208 1069792
vector 35  OrionNetwork.host[1].wlan[0].queue  rcvdPk:vector(packetBytes)  ETV
attr interpolationmode none
attr title "received packets, vector(packetBytes)"
35	82486 315 1509 12682 6.000232651462 26.000697176359 11 28 48 428 17744
vector 37  OrionNetwork.host[1].wlan[0].queue  queueingTime:vector  ETV
attr interpolationmode none
attr title "queueing time, vector"
37	82801 324 1509 12682 6.000232651462 26.000697176359 11 0 0.000232816289 0.000464816289 1.0802742442373e-007
vector 41  OrionNetwork.host[1].wlan[0].mac  rcvdPkFromHL:vector(packetBytes)  ETV
attr interpolationmode none
attr source packetReceivedFromUpper
attr title "packets received from higher layer, vector(packetBytes)"
41	85217 315 1510 12683 6.000232651462 26.000697176359 11 28 48 428 17744
vector 40  OrionNetwork.host[1].wlan[0].mac  sentDownPk:vector(packetBytes)  ETV
attr interpolationmode none
attr source packetSentToLower
attr title "packets sent to lower layer, vector(packetBytes)"
40	84902 315 1510 12683 6.000232651462 26.000697176359 11 38 58 538 27404
vector 20  OrionNetwork.host[0].wlan[0].mac  rcvdPkFromLL:vector(packetBytes)  ETV
attr interpolationmode none
attr source packetReceivedFromLower
attr title "packets received from lower layer, vector(packetBytes)"
20	73878 1370 1572 13967 6.000464370256 26.003769324248 49 38 58 2622 143716
vector 17  OrionNetwork.host[0].wlan[0].mac  passedUpPk:vector(packetBytes)  ETV
attr interpolationmode none
attr source packetSentToUpper
attr title "packets passed to higher layer, vector(packetBytes)"
17	72217 1119 1572 13946 6.000464370256 26.00353713912 40 28 48 1780 81520
vector 4  OrionNetwork.host[0].udp  rcvdPk:vector(packetBytes)  ETV
attr interpolationmode none
attr source rcvdPk
attr title "packets received, vector(packetBytes)"
4	69588 1021 1574 13950 6.000464370256 26.00353713912 38 8 28 964 26192
vector 5  OrionNetwork.host[0].udp  passedUpPk:vector(count)  ETV
attr interpolationmode none
attr title "packets passed up, vector(count)"
5	70609 1017 1574 13950 6.000464370256 26.00353713912 38 1 38 741 19019
vector 0  OrionNetwork.host[0].udpApp[0]  rcvdPk:vector(packetBytes)  ETV
attr interpolationmode none
attr source rcvdPk
attr title "packets received, vector(packetBytes)"
0	66673 1021 1575 13951 6.000464370256 26.00353713912 38 0 20 660 13200
vector 2  OrionNetwork.host[0].udpApp[0]  rcvdPkLifetime:vector  ETV
attr interpolationmode none
attr source messageAge(rcvdPk)
attr title "received packet lifetime, vector"
attr unit s
2	67900 1482 1575 13951 6.000464370256 26.00353713912 38 0.000232115131 0.002519541583 0.015390777706 1.5776649541061e-005
vector 174  OrionNetwork.host[7].wlan[0].mac  rcvdPkFromLL:vector(packetBytes)  ETV
attr interpolationmode none
attr source packetReceivedFromLower
attr title "packets received from lower layer, vector(packetBytes)"